 Gaussian 16, Revision C.02,
 Gaussian 16:  ES64L-G16RevC.02  7-Dec-2021

 -----------------------------
 #n B3LYP/6-31G(d) Opt scf=xqc
 -----------------------------

 ----------
 gy2_CoFe_C
 ----------
 Symbolic Z-matrix:
 Charge =  0 Multiplicity = 2

 SCF Done:  E(UB3LYP) =  -3796.06880120     A.U. after   33 cycles
 SCF Done:  E(UB3LYP) =  -3796.06881599     a.u. after    3 cycles
 SCF Done:  E(UB3LYP) =  -3796.17606144     A.U. after   33 cycles
 SCF Done:  E(UB3LYP) =  -3796.17606144     a.u. after    2 cycles
 SCF Done:  E(UB3LYP) =  -3796.27329994     A.U. after   33 cycles
 SCF Done:  E(UB3LYP) =  -3796.27329994     a.u. after    2 cycles
 SCF Done:  E(UB3LYP) =  -3796.29610590     A.U. after   33 cycles
 SCF Done:  E(UB3LYP) =  -3796.29610590     a.u. after    2 cycles
 SCF Done:  E(UB3LYP) =  -3796.31286849     A.U. after   33 cycles
 SCF Done:  E(UB3LYP) =  -3796.31286849     a.u. after    1 cycles
 SCF Done:  E(UB3LYP) =  -3796.35081758     A.U. after   30 cycles
 SCF Done:  E(UB3LYP) =  -3796.35127161     A.U. after   33 cycles
 SCF Done:  E(UB3LYP) =  -3796.35127161     a.u. after    1 cycles
 SCF Done:  E(UB3LYP) =  -3796.35139097     A.U. after   28 cycles
 SCF Done:  E(UB3LYP) =  -3796.35143756     A.U. after   24 cycles
 SCF Done:  E(UB3LYP) =  -3796.35145321     A.U. after   29 cycles
 SCF Done:  E(UB3LYP) =  -3796.35145682     A.U. after   28 cycles
 SCF Done:  E(UB3LYP) =  -3796.35145925     A.U. after   28 cycles
 SCF Done:  E(UB3LYP) =  -3796.35146052     A.U. after   23 cycles
 SCF Done:  E(UB3LYP) =  -3796.35146083     A.U. after   22 cycles
 Optimization completed.
    -- Stationary point found.

                         Standard orientation:
 ---------------------------------------------------------------------
 Center     Atomic      Atomic             Coordinates (Angstroms)
 Number     Number       Type             X           Y           Z
 ---------------------------------------------------------------------
      1          6           0       -2.776096   -4.479136    0.000000
      2          6           0       -1.670260   -3.617810    0.000000
      3          6           0       -0.350309   -4.161743    0.000000
      4          6           0       -0.156379   -5.549872    0.000000
      5          6           0       -1.268832   -6.388718    0.000000
      6          6           0       -2.567647   -5.856589    0.000000
      7          6           0       -1.651814   -2.177524    0.000000
      8          6           0        0.660738   -3.148028    0.000000
      9          6           0       -2.267713   -1.026119    0.000000
     10          6           0        1.658369   -2.367920    0.000000
     11          6           0       -3.185919    0.008776    0.000000
     12          6           0        2.779568   -1.591675    0.000000
     13          6           0       -3.206292    1.292493    0.000000
     14          6           0        3.635869   -0.712174    0.000000
     15          1           0       -3.781285   -4.068499    0.000000
     16          1           0        0.849321   -5.958616    0.000000
     17          1           0       -1.129287   -7.466001    0.000000
     18          1           0       -3.421829   -6.528084    0.000000
     19         27           0        0.000000   -1.294073    0.000000
     20          1           0       -5.647295    5.296453    0.000000
     21          1           0       -5.606966    2.808910    0.000000
     22          1           0       -3.535365    6.586372    0.000000
     23          1           0       -1.338781    5.420322    0.000000
     24          6           0       -4.696951    4.770179    0.000000
     25          6           0       -3.499604    5.500371    0.000000
     26          6           0       -2.264189    4.852198    0.000000
     27          6           0       -2.221226    3.452320    0.000000
     28          6           0       -3.448930    2.709231    0.000000
     29          6           0       -4.681136    3.376259    0.000000
     30         26           0       -1.298166    0.746513    0.000000
     31          6           0       -1.063538    2.578977    0.000000
     32          6           0        0.137922    2.049729    0.000000
     33          6           0        1.515035    2.125196    0.000000
     34          6           0        2.734167    1.998082    0.000000
     35          6           0        4.119434    1.707704    0.000000
     36          6           0        5.082616    2.736818    0.000000
     37          6           0        6.441923    2.449488    0.000000
     38          6           0        6.882235    1.119323    0.000000
     39          6           0        5.958790    0.081739    0.000000
     40          6           0        4.574636    0.346564    0.000000
     41          1           0        4.736992    3.765775    0.000000
     42          1           0        7.164049    3.261156    0.000000
     43          1           0        7.945192    0.895884    0.000000
     44          1           0        6.290766   -0.951859    0.000000
 ---------------------------------------------------------------------

 The electronic state is 2-A'.
 Alpha  occ. eigenvalues -- -277.50607-256.05484 -32.82238 -30.04453 -28.47805
 Alpha  occ. eigenvalues --  -28.47496 -28.46230 -25.91055 -25.90768 -25.89343
 Alpha  occ. eigenvalues --  -10.22783 -10.22709 -10.22536 -10.22530 -10.22435
 Alpha  occ. eigenvalues --  -10.22327 -10.22320 -10.22268 -10.22200 -10.21922
 Alpha  occ. eigenvalues --  -10.21748 -10.21292 -10.20835 -10.20746 -10.20722
 Alpha  occ. eigenvalues --  -10.20676 -10.20548 -10.20505 -10.20458 -10.20452
 Alpha  occ. eigenvalues --  -10.20435 -10.20405 -10.20237 -10.20202 -10.20186
 Alpha  occ. eigenvalues --  -10.20110 -10.20090 -10.19351 -10.19165 -10.18106
 Alpha  occ. eigenvalues --   -3.66066  -3.47434  -2.35207  -2.34840  -2.31783
 Alpha  occ. eigenvalues --   -2.26431  -2.26039  -2.22175  -0.88001  -0.87672
 Alpha  occ. eigenvalues --   -0.87340  -0.83200  -0.82102  -0.79992  -0.79189
 Alpha  occ. eigenvalues --   -0.78988  -0.77743  -0.76984  -0.76438  -0.75558
 Alpha  occ. eigenvalues --   -0.73599  -0.72754  -0.71386  -0.65835  -0.65619
 Alpha  occ. eigenvalues --   -0.64290  -0.63237  -0.62631  -0.62177  -0.59588
 Alpha  occ. eigenvalues --   -0.58780  -0.57573  -0.54707  -0.54531  -0.53254
 Alpha  occ. eigenvalues --   -0.50816  -0.50047  -0.49732  -0.47833  -0.47407
 Alpha  occ. eigenvalues --   -0.46945  -0.45245  -0.45017  -0.44629  -0.44345
 Alpha  occ. eigenvalues --   -0.44177  -0.43560  -0.40746  -0.40416  -0.40048
 Alpha  occ. eigenvalues --   -0.39527  -0.38485  -0.37971  -0.37786  -0.37712
 Alpha  occ. eigenvalues --   -0.37492  -0.36634  -0.35975  -0.35781  -0.35498
 Alpha  occ. eigenvalues --   -0.34395  -0.33594  -0.32490  -0.31704  -0.30992
 Alpha  occ. eigenvalues --   -0.30356  -0.29433  -0.28072  -0.27716  -0.26833
 Alpha  occ. eigenvalues --   -0.26582  -0.26577  -0.26041  -0.25293  -0.24721
 Alpha  occ. eigenvalues --   -0.23550  -0.22787  -0.21965  -0.21949  -0.19879
 Alpha  occ. eigenvalues --   -0.19868  -0.18070  -0.17891
 Alpha virt. eigenvalues --   -0.08049  -0.07544  -0.04790  -0.04690  -0.02996
 Alpha virt. eigenvalues --   -0.01552  -0.01109  -0.00558  -0.00081   0.01263
 Alpha virt. eigenvalues --    0.01761   0.02323   0.03958   0.04609   0.04933

  Beta  occ. eigenvalues -- -277.50640-256.05403 -32.85423 -30.00067 -28.50771
  Beta  occ. eigenvalues --  -28.49476 -28.49120 -25.87486 -25.86666 -25.86123
  Beta  occ. eigenvalues --  -10.22826 -10.22641 -10.22547 -10.22543 -10.22423
  Beta  occ. eigenvalues --  -10.22329 -10.22311 -10.22257 -10.22182 -10.21935
  Beta  occ. eigenvalues --  -10.21722 -10.21328 -10.20743 -10.20730 -10.20666
  Beta  occ. eigenvalues --  -10.20549 -10.20498 -10.20461 -10.20452 -10.20448
  Beta  occ. eigenvalues --  -10.20421 -10.20402 -10.20322 -10.20239 -10.20201
  Beta  occ. eigenvalues --  -10.20115 -10.20095 -10.19449 -10.19155 -10.18170
  Beta  occ. eigenvalues --   -3.73610  -3.36394  -2.44043  -2.40985  -2.40728
  Beta  occ. eigenvalues --   -2.15058  -2.13431  -2.11257  -0.87926  -0.87673
  Beta  occ. eigenvalues --   -0.87330  -0.83118  -0.82029  -0.79967  -0.79185
  Beta  occ. eigenvalues --   -0.78938  -0.77725  -0.76959  -0.76408  -0.75602
  Beta  occ. eigenvalues --   -0.73524  -0.72655  -0.71426  -0.65775  -0.65522
  Beta  occ. eigenvalues --   -0.64319  -0.63215  -0.62600  -0.62171  -0.59529
  Beta  occ. eigenvalues --   -0.58683  -0.57624  -0.54681  -0.54523  -0.53248
  Beta  occ. eigenvalues --   -0.50778  -0.50014  -0.49707  -0.47706  -0.47409
  Beta  occ. eigenvalues --   -0.46922  -0.45238  -0.44985  -0.44589  -0.44312
  Beta  occ. eigenvalues --   -0.44180  -0.43556  -0.40676  -0.40075  -0.39983
  Beta  occ. eigenvalues --   -0.39485  -0.38304  -0.37930  -0.37696  -0.37465
  Beta  occ. eigenvalues --   -0.37070  -0.36604  -0.35951  -0.35812  -0.35443
  Beta  occ. eigenvalues --   -0.33967  -0.33764  -0.31644  -0.31549  -0.31396
  Beta  occ. eigenvalues --   -0.29959  -0.29304  -0.28362  -0.27780  -0.26989
  Beta  occ. eigenvalues --   -0.26480  -0.26244  -0.25172  -0.24307  -0.24066
  Beta  occ. eigenvalues --   -0.22877  -0.22537  -0.21995  -0.21802  -0.20587
  Beta  occ. eigenvalues --   -0.18198  -0.16578
  Beta virt. eigenvalues --   -0.08565  -0.07577  -0.07505  -0.04599  -0.03844
  Beta virt. eigenvalues --   -0.02410  -0.01637  -0.01381   0.00331   0.00353
  Beta virt. eigenvalues --    0.01800   0.02030   0.03601   0.04028   0.04794

 Mulliken charges and spin densities:
               1          2
     1  C   -0.216389   0.003926
     2  C    0.233022  -0.015769
     3  C   -0.092921   0.007613
     4  C   -0.128693  -0.001438
     5  C   -0.143735  -0.001932
     6  C   -0.122286  -0.002759
     7  C   -0.218999   0.159961
     8  C   -0.056149   0.014418
     9  C   -0.092333   0.013712
    10  C    0.091534   0.067121
    11  C   -0.308566  -0.035096
    12  C   -0.306791  -0.045955
    13  C    0.040743  -0.009233
    14  C    0.108505   0.082731
    15  H    0.152572  -0.000204
    16  H    0.151716  -0.000001
    17  H    0.140023   0.000410
    18  H    0.139728   0.000890
    19  Co   0.300310  -1.433879
    20  H    0.139693  -0.000324
    21  H    0.150462  -0.000113
    22  H    0.139919  -0.000798
    23  H    0.152390  -0.000009
    24  C   -0.135031   0.002032
    25  C   -0.132591   0.006974
    26  C   -0.180675   0.002415
    27  C    0.078724   0.006830
    28  C    0.075801  -0.002040
    29  C   -0.170355   0.008549
    30  Fe   0.591951   2.360095
    31  C    0.035753  -0.061143
    32  C   -0.452124  -0.105316
    33  C   -0.051341   0.030769
    34  C    0.034233  -0.046215
    35  C    0.021472   0.008664
    36  C   -0.163533  -0.004677
    37  C   -0.122682   0.002344
    38  C   -0.133178  -0.004511
    39  C   -0.152683   0.005271
    40  C    0.023811  -0.013706
    41  H    0.149822   0.000284
    42  H    0.139093  -0.000129
    43  H    0.139157   0.000342
    44  H    0.150618  -0.000102
 Sum of Mulliken charges =  -0.00000   1.00000

 Dipole moment (field-independent basis, Debye):
    X=             -0.3564    Y=             -0.1539    Z=              0.0000  Tot=              0.3882
 Quadrupole moment (field-independent basis, Debye-Ang):
   XX=           -160.2946   YY=           -157.1650   ZZ=           -202.5726
   XY=             -0.4198   XZ=              0.0000   YZ=              0.0000

 Normal termination of Gaussian 16 at Mon Jan 23 23:29:37 2023.
