 Gaussian 16, Revision C.02,
 Gaussian 16:  ES64L-G16RevC.02  7-Dec-2021

 -----------------------------
 #n B3LYP/6-31G(d) Opt scf=xqc
 -----------------------------

 ----------
 gy2_CoCr_C
 ----------
 Symbolic Z-matrix:
 Charge =  0 Multiplicity = 2

 SCF Done:  E(UB3LYP) =  -3576.81430002     A.U. after   33 cycles
 SCF Done:  E(UB3LYP) =  -3576.83910308     a.u. after   42 cycles
 SCF Done:  E(UB3LYP) =  -3576.94364301     A.U. after   33 cycles
 SCF Done:  E(UB3LYP) =  -3576.94364301     a.u. after    2 cycles
 SCF Done:  E(UB3LYP) =  -3577.03606277     A.U. after   33 cycles
 SCF Done:  E(UB3LYP) =  -3577.03606277     a.u. after    2 cycles
 SCF Done:  E(UB3LYP) =  -3577.06248646     A.U. after   33 cycles
 SCF Done:  E(UB3LYP) =  -3577.06248646     a.u. after    1 cycles
 SCF Done:  E(UB3LYP) =  -3577.07841867     A.U. after   33 cycles
 SCF Done:  E(UB3LYP) =  -3577.07841867     a.u. after    1 cycles
 SCF Done:  E(UB3LYP) =  -3577.11607244     A.U. after   20 cycles
 SCF Done:  E(UB3LYP) =  -3577.11616900     A.U. after   21 cycles
 SCF Done:  E(UB3LYP) =  -3577.11624025     A.U. after   21 cycles
 SCF Done:  E(UB3LYP) =  -3577.11633692     A.U. after   19 cycles
 SCF Done:  E(UB3LYP) =  -3577.11637905     A.U. after   20 cycles
 SCF Done:  E(UB3LYP) =  -3577.11638967     A.U. after   17 cycles
 SCF Done:  E(UB3LYP) =  -3577.11640000     A.U. after   18 cycles
 SCF Done:  E(UB3LYP) =  -3577.11640218     A.U. after   16 cycles
 SCF Done:  E(UB3LYP) =  -3577.11640290     A.U. after   18 cycles
 SCF Done:  E(UB3LYP) =  -3577.11640345     A.U. after   16 cycles
 Optimization completed.
    -- Stationary point found.

                         Standard orientation:
 ---------------------------------------------------------------------
 Center     Atomic      Atomic             Coordinates (Angstroms)
 Number     Number       Type             X           Y           Z
 ---------------------------------------------------------------------
      1          6           0       -5.281076   -0.803716   -0.000000
      2          6           0       -3.909557   -1.092390   -0.000000
      3          6           0       -3.477313   -2.458561   -0.000000
      4          6           0       -4.417428   -3.497623   -0.000000
      5          6           0       -5.776867   -3.185533   -0.000000
      6          6           0       -6.203389   -1.850307   -0.000000
      7          6           0       -2.789505   -0.178323   -0.000000
      8          6           0       -2.042301   -2.606298   -0.000000
      9          6           0       -2.131917    0.962919   -0.000000
     10          6           0       -0.798569   -2.876029   -0.000000
     11          6           0       -1.924144    2.339353    0.000000
     12          6           0        0.518317   -3.236678   -0.000000
     13          6           0       -0.917525    3.153050    0.000000
     14          6           0        1.744938   -3.312873   -0.000000
     15          1           0       -5.613836    0.229835   -0.000000
     16          1           0       -4.084726   -4.531129   -0.000000
     17          1           0       -6.511926   -3.985374   -0.000000
     18          1           0       -7.266967   -1.627631   -0.000000
     19         27           0       -1.014156   -0.884855   -0.000000
     20          1           0       -0.097174    7.778023    0.000000
     21          1           0       -1.716063    5.887935    0.000000
     22          1           0        2.340479    7.344474    0.000000
     23          1           0        3.209071    5.013501    0.000000
     24          6           0        0.265226    6.753707    0.000000
     25          6           0        1.646799    6.508212    0.000000
     26          6           0        2.140203    5.204533    0.000000
     27          6           0        1.236426    4.133162    0.000000
     28          6           0       -0.170459    4.381189    0.000000
     29          6           0       -0.646744    5.699749    0.000000
     30         24           0       -0.000000    1.332765    0.000000
     31          6           0        1.549451    2.724509    0.000000
     32          6           0        2.148706    1.603881    0.000000
     33          6           0        2.733970    0.381132    0.000000
     34          6           0        3.199086   -0.762760    0.000000
     35          6           0        3.865464   -2.018504    0.000000
     36          6           0        5.276010   -2.042012    0.000000
     37          6           0        5.980435   -3.240674    0.000000
     38          6           0        5.292229   -4.458576   -0.000000
     39          6           0        3.902135   -4.468509   -0.000000
     40          6           0        3.162878   -3.269190   -0.000000
     41          1           0        5.805167   -1.094316    0.000000
     42          1           0        7.066694   -3.226603    0.000000
     43          1           0        5.839670   -5.396730   -0.000000
     44          1           0        3.358933   -5.408318   -0.000000
 ---------------------------------------------------------------------

 The electronic state is 2-A'.
 Alpha  occ. eigenvalues -- -277.55894-215.66583 -32.87247 -28.52326 -28.52311
 Alpha  occ. eigenvalues --  -28.52154 -24.68063 -20.96969 -20.96951 -20.96686
 Alpha  occ. eigenvalues --  -10.23134 -10.23052 -10.22988 -10.22587 -10.22546
 Alpha  occ. eigenvalues --  -10.22499 -10.22004 -10.21861 -10.21637 -10.21574
 Alpha  occ. eigenvalues --  -10.21285 -10.21109 -10.20994 -10.20736 -10.20724
 Alpha  occ. eigenvalues --  -10.20695 -10.20639 -10.20590 -10.20574 -10.20565
 Alpha  occ. eigenvalues --  -10.20484 -10.20306 -10.20301 -10.20262 -10.20226
 Alpha  occ. eigenvalues --  -10.20158 -10.20117 -10.20037 -10.19823 -10.19620
 Alpha  occ. eigenvalues --   -3.69480  -2.88758  -2.37610  -2.37078  -2.36468
 Alpha  occ. eigenvalues --   -1.84588  -1.83776  -1.83425  -0.87761  -0.87696
 Alpha  occ. eigenvalues --   -0.87395  -0.82057  -0.81424  -0.80719  -0.79278
 Alpha  occ. eigenvalues --   -0.79056  -0.77871  -0.76809  -0.76363  -0.75946
 Alpha  occ. eigenvalues --   -0.73376  -0.72342  -0.71975  -0.66133  -0.64966
 Alpha  occ. eigenvalues --   -0.64554  -0.63115  -0.62522  -0.62405  -0.59766
 Alpha  occ. eigenvalues --   -0.58808  -0.57570  -0.54802  -0.54517  -0.53128
 Alpha  occ. eigenvalues --   -0.50802  -0.50183  -0.49319  -0.47582  -0.47357
 Alpha  occ. eigenvalues --   -0.47187  -0.45768  -0.44984  -0.44255  -0.44163
 Alpha  occ. eigenvalues --   -0.43858  -0.43840  -0.40391  -0.39838  -0.39749
 Alpha  occ. eigenvalues --   -0.39654  -0.38248  -0.37874  -0.37578  -0.37495
 Alpha  occ. eigenvalues --   -0.36917  -0.35996  -0.35797  -0.35743  -0.35222
 Alpha  occ. eigenvalues --   -0.34785  -0.34675  -0.31101  -0.30959  -0.29986
 Alpha  occ. eigenvalues --   -0.29970  -0.29031  -0.27754  -0.26951  -0.26754
 Alpha  occ. eigenvalues --   -0.26638  -0.25374  -0.25134  -0.23847  -0.22952
 Alpha  occ. eigenvalues --   -0.22349  -0.21431  -0.20883  -0.19327  -0.18497
 Alpha  occ. eigenvalues --   -0.18148  -0.14463
 Alpha virt. eigenvalues --   -0.08941  -0.07462  -0.06104  -0.06017  -0.05723
 Alpha virt. eigenvalues --   -0.04137  -0.01567  -0.01370  -0.00976  -0.00371
 Alpha virt. eigenvalues --    0.00106   0.01230   0.02232   0.03622   0.04674

  Beta  occ. eigenvalues -- -277.55992-215.66495 -32.92266 -28.57008 -28.56267
  Beta  occ. eigenvalues --  -28.55945 -24.63321 -20.93597 -20.92994 -20.92113
  Beta  occ. eigenvalues --  -10.23243 -10.23109 -10.22934 -10.22703 -10.22597
  Beta  occ. eigenvalues --  -10.22476 -10.22031 -10.21862 -10.21612 -10.21478
  Beta  occ. eigenvalues --  -10.21189 -10.21138 -10.21085 -10.20764 -10.20756
  Beta  occ. eigenvalues --  -10.20677 -10.20622 -10.20616 -10.20595 -10.20582
  Beta  occ. eigenvalues --  -10.20447 -10.20380 -10.20305 -10.20285 -10.20257
  Beta  occ. eigenvalues --  -10.20228 -10.20178 -10.20091 -10.19725 -10.19638
  Beta  occ. eigenvalues --   -3.81281  -2.74721  -2.50805  -2.49229  -2.48516
  Beta  occ. eigenvalues --   -1.70893  -1.69570  -1.66707  -0.87784  -0.87691
  Beta  occ. eigenvalues --   -0.87417  -0.82227  -0.81518  -0.80660  -0.79399
  Beta  occ. eigenvalues --   -0.78993  -0.77903  -0.76850  -0.76357  -0.75963
  Beta  occ. eigenvalues --   -0.73444  -0.72388  -0.71958  -0.66155  -0.65046
  Beta  occ. eigenvalues --   -0.64572  -0.63136  -0.62534  -0.62406  -0.59808
  Beta  occ. eigenvalues --   -0.58743  -0.57711  -0.54810  -0.54551  -0.53161
  Beta  occ. eigenvalues --   -0.50808  -0.50192  -0.49355  -0.47705  -0.47323
  Beta  occ. eigenvalues --   -0.47206  -0.45747  -0.45145  -0.44268  -0.44159
  Beta  occ. eigenvalues --   -0.43884  -0.43846  -0.40688  -0.40280  -0.39845
  Beta  occ. eigenvalues --   -0.39744  -0.38413  -0.38195  -0.37994  -0.37604
  Beta  occ. eigenvalues --   -0.37490  -0.36928  -0.36183  -0.35849  -0.35377
  Beta  occ. eigenvalues --   -0.35032  -0.34656  -0.33953  -0.33836  -0.33038
  Beta  occ. eigenvalues --   -0.32333  -0.30496  -0.30491  -0.30477  -0.29097
  Beta  occ. eigenvalues --   -0.28439  -0.26818  -0.26620  -0.26498  -0.25580
  Beta  occ. eigenvalues --   -0.24907  -0.23044  -0.21160  -0.20752  -0.16986
  Beta  occ. eigenvalues --   -0.13766
  Beta virt. eigenvalues --   -0.08535  -0.07831  -0.06302  -0.05230  -0.02156
  Beta virt. eigenvalues --   -0.01774  -0.01612  -0.01423   0.00265   0.00613
  Beta virt. eigenvalues --    0.02358   0.02707   0.04479   0.04638   0.05013

 Mulliken charges and spin densities:
               1          2
     1  C   -0.207339   0.022634
     2  C    0.185482  -0.023399
     3  C   -0.065245   0.028023
     4  C   -0.133502  -0.021664
     5  C   -0.141279   0.032107
     6  C   -0.125048  -0.019098
     7  C   -0.217025   0.007306
     8  C   -0.064416  -0.016786
     9  C   -0.106816  -0.112044
    10  C    0.097833  -0.087472
    11  C   -0.190953  -0.013471
    12  C   -0.348787   0.110743
    13  C   -0.002279  -0.211747
    14  C    0.134479  -0.183724
    15  H    0.154930  -0.001148
    16  H    0.151409   0.000573
    17  H    0.140164  -0.001595
    18  H    0.140480   0.000327
    19  Co   0.340706  -2.549995
    20  H    0.138621  -0.000809
    21  H    0.151479   0.000704
    22  H    0.139156   0.000441
    23  H    0.151756  -0.000334
    24  C   -0.127774   0.007488
    25  C   -0.141416  -0.003642
    26  C   -0.163005   0.004416
    27  C    0.136089   0.006018
    28  C    0.046354   0.027058
    29  C   -0.185327  -0.013743
    30  Cr   0.338518   3.774095
    31  C   -0.611832   0.021750
    32  C    0.314672   0.086688
    33  C    0.514052  -0.156992
    34  C   -0.533687   0.289432
    35  C    0.051201  -0.050092
    36  C   -0.147328   0.020923
    37  C   -0.133573  -0.011024
    38  C   -0.124576   0.012548
    39  C   -0.157271  -0.017338
    40  C    0.009794   0.042871
    41  H    0.154399  -0.001044
    42  H    0.142314   0.001098
    43  H    0.141806  -0.000854
    44  H    0.152781   0.000775
 Sum of Mulliken charges =  -0.00000   1.00000

 Dipole moment (field-independent basis, Debye):
    X=              0.4735    Y=             -0.5966    Z=              0.0000  Tot=              0.7617
 Quadrupole moment (field-independent basis, Debye-Ang):
   XX=           -157.1738   YY=           -161.3922   ZZ=           -203.7997
   XY=              1.3612   XZ=              0.0000   YZ=              0.0000

 Normal termination of Gaussian 16 at Tue Jan 24 14:30:12 2023.
