 Gaussian 16, Revision C.02,
 Gaussian 16:  ES64L-G16RevC.02  7-Dec-2021

 -----------------------------
 #n B3LYP/6-31G(d) Opt scf=xqc
 -----------------------------

 ----------
 gy2_CoCu_C
 ----------
 Symbolic Z-matrix:
 Charge =  0 Multiplicity = 1

 SCF Done:  E(RB3LYP) =  -4172.72851844     A.U. after   33 cycles
 SCF Done:  E(RB3LYP) =  -4172.72853469     a.u. after    2 cycles
 SCF Done:  E(RB3LYP) =  -4172.84374013     A.U. after   21 cycles
 SCF Done:  E(RB3LYP) =  -4172.95714466     A.U. after   22 cycles
 SCF Done:  E(RB3LYP) =  -4172.97999537     A.U. after   22 cycles
 SCF Done:  E(RB3LYP) =  -4172.99293909     A.U. after   21 cycles
 SCF Done:  E(RB3LYP) =  -4172.99785479     A.U. after   19 cycles
 SCF Done:  E(RB3LYP) =  -4173.00785437     A.U. after   25 cycles
 SCF Done:  E(RB3LYP) =  -4173.00660504     A.U. after   23 cycles
 SCF Done:  E(RB3LYP) =  -4173.01625112     A.U. after   22 cycles
 SCF Done:  E(RB3LYP) =  -4173.01836478     A.U. after   22 cycles
 SCF Done:  E(RB3LYP) =  -4173.01920359     A.U. after   22 cycles
 SCF Done:  E(RB3LYP) =  -4173.01945644     A.U. after   20 cycles
 SCF Done:  E(RB3LYP) =  -4173.01961053     A.U. after   19 cycles
 SCF Done:  E(RB3LYP) =  -4173.01971893     A.U. after   18 cycles
 SCF Done:  E(RB3LYP) =  -4173.01974098     A.U. after   17 cycles
 SCF Done:  E(RB3LYP) =  -4173.01974900     A.U. after   16 cycles
 SCF Done:  E(RB3LYP) =  -4173.01975171     A.U. after   17 cycles
 SCF Done:  E(RB3LYP) =  -4173.01975274     A.U. after   17 cycles
 Optimization completed.
    -- Stationary point found.

                         Standard orientation:
 ---------------------------------------------------------------------
 Center     Atomic      Atomic             Coordinates (Angstroms)
 Number     Number       Type             X           Y           Z
 ---------------------------------------------------------------------
      1          6           0       -4.748548   -3.233490   -0.000000
      2          6           0       -3.487108   -2.607294   -0.000000
      3          6           0       -2.304946   -3.419769   -0.000000
      4          6           0       -2.417287   -4.820966   -0.000000
      5          6           0       -3.674440   -5.413276   -0.000000
      6          6           0       -4.833825   -4.619690   -0.000000
      7          6           0       -3.271254   -1.206069   -0.000000
      8          6           0       -1.046201   -2.727958   -0.000000
      9          6           0       -2.937429    0.000066   -0.000000
     10          6           0        0.158734   -2.329425    0.000000
     11          6           0       -1.966756    0.997983   -0.000000
     12          6           0        1.519471   -2.252894    0.000000
     13          6           0       -1.541353    2.248749   -0.000000
     14          6           0        2.728723   -2.059425    0.000000
     15          1           0       -5.645280   -2.622001   -0.000000
     16          1           0       -1.516462   -5.427083   -0.000000
     17          1           0       -3.759870   -6.495818   -0.000000
     18          1           0       -5.810407   -5.095384   -0.000000
     19         29           0       -1.090899   -0.810065   -0.000000
     20          1           0       -3.411974    6.572763   -0.000000
     21          1           0       -3.758797    4.111743   -0.000000
     22          1           0       -1.125274    7.523793   -0.000000
     23          1           0        0.866280    6.040700    0.000000
     24          6           0       -2.555321    5.904456   -0.000000
     25          6           0       -1.254833    6.444924   -0.000000
     26          6           0       -0.135005    5.620494   -0.000000
     27          6           0       -0.318495    4.227320   -0.000000
     28          6           0       -1.641545    3.675239   -0.000000
     29          6           0       -2.755305    4.527622   -0.000000
     30         27           0       -0.000000    1.339638   -0.000000
     31          6           0        0.661182    3.200293    0.000000
     32          6           0        1.608580    2.356965    0.000000
     33          6           0        2.709526    1.555199    0.000000
     34          6           0        3.570049    0.678001    0.000000
     35          6           0        4.522263   -0.363819    0.000000
     36          6           0        5.904356   -0.079700    0.000000
     37          6           0        6.845160   -1.100279    0.000000
     38          6           0        6.434260   -2.440907    0.000000
     39          6           0        5.081910   -2.752738    0.000000
     40          6           0        4.103584   -1.737108    0.000000
     41          1           0        6.218154    0.959254    0.000000
     42          1           0        7.903538   -0.855764    0.000000
     43          1           0        7.172238   -3.237727    0.000000
     44          1           0        4.755043   -3.787845    0.000000
 ---------------------------------------------------------------------

 The electronic state is 1-A'.
 Alpha  occ. eigenvalues -- -323.05882-277.46231 -38.89252 -34.10488 -34.10197
 Alpha  occ. eigenvalues --  -34.09107 -32.79297 -28.45488 -28.44232 -28.42214
 Alpha  occ. eigenvalues --  -10.24358 -10.23908 -10.23875 -10.23779 -10.23273
 Alpha  occ. eigenvalues --  -10.23266 -10.23206 -10.21914 -10.21590 -10.21550
 Alpha  occ. eigenvalues --  -10.21321 -10.21287 -10.21268 -10.21263 -10.21232
 Alpha  occ. eigenvalues --  -10.21076 -10.21056 -10.20927 -10.20845 -10.20758
 Alpha  occ. eigenvalues --  -10.20715 -10.20669 -10.20520 -10.20205 -10.19779
 Alpha  occ. eigenvalues --  -10.19275 -10.19138 -10.19067 -10.19052 -10.18939
 Alpha  occ. eigenvalues --   -4.34647  -3.64951  -2.85078  -2.84168  -2.82273
 Alpha  occ. eigenvalues --   -2.35845  -2.33901  -2.29599  -0.89033  -0.88066
 Alpha  occ. eigenvalues --   -0.86421  -0.83421  -0.82515  -0.81061  -0.79877
 Alpha  occ. eigenvalues --   -0.79293  -0.78274  -0.77383  -0.76742  -0.75508
 Alpha  occ. eigenvalues --   -0.74131  -0.72648  -0.72166  -0.66817  -0.65782
 Alpha  occ. eigenvalues --   -0.64843  -0.63580  -0.62714  -0.62295  -0.60399
 Alpha  occ. eigenvalues --   -0.58866  -0.58596  -0.55606  -0.54932  -0.53088
 Alpha  occ. eigenvalues --   -0.51879  -0.50874  -0.49181  -0.48712  -0.47652
 Alpha  occ. eigenvalues --   -0.46342  -0.46167  -0.45897  -0.45099  -0.44212
 Alpha  occ. eigenvalues --   -0.43553  -0.43055  -0.41606  -0.41284  -0.40279
 Alpha  occ. eigenvalues --   -0.39212  -0.39086  -0.38424  -0.37858  -0.37796
 Alpha  occ. eigenvalues --   -0.37415  -0.36966  -0.36545  -0.36245  -0.36196
 Alpha  occ. eigenvalues --   -0.34789  -0.34547  -0.33843  -0.32510  -0.32453
 Alpha  occ. eigenvalues --   -0.31086  -0.30424  -0.29320  -0.29038  -0.29026
 Alpha  occ. eigenvalues --   -0.27736  -0.27346  -0.26852  -0.26372  -0.25912
 Alpha  occ. eigenvalues --   -0.25708  -0.23919  -0.21915  -0.21598  -0.21020
 Alpha  occ. eigenvalues --   -0.21007  -0.15869  -0.14945  -0.14169
 Alpha virt. eigenvalues --   -0.08521  -0.07684  -0.06319  -0.04623  -0.03569
 Alpha virt. eigenvalues --   -0.02210  -0.01370  -0.01002  -0.00880   0.02303
 Alpha virt. eigenvalues --    0.02732   0.03990   0.05121   0.05204   0.05781

 Mulliken charges:
               1
     1  C   -0.170783
     2  C    0.063208
     3  C    0.029462
     4  C   -0.156934
     5  C   -0.140000
     6  C   -0.125196
     7  C    0.165805
     8  C    0.153223
     9  C   -0.310725
    10  C   -0.317415
    11  C   -0.064520
    12  C    0.048163
    13  C   -0.184681
    14  C   -0.049642
    15  H    0.153234
    16  H    0.155530
    17  H    0.143523
    18  H    0.144321
    19  Cu   0.374265
    20  H    0.130827
    21  H    0.142515
    22  H    0.131837
    23  H    0.142889
    24  C   -0.134119
    25  C   -0.140975
    26  C   -0.138707
    27  C   -0.084717
    28  C    0.181204
    29  C   -0.206491
    30  Co   0.129279
    31  C    0.023645
    32  C   -0.021367
    33  C   -0.170509
    34  C    0.037595
    35  C    0.033863
    36  C   -0.155280
    37  C   -0.128207
    38  C   -0.127358
    39  C   -0.154076
    40  C    0.005426
    41  H    0.155611
    42  H    0.142784
    43  H    0.141572
    44  H    0.151920
 Sum of Mulliken charges =  -0.00000

 Dipole moment (field-independent basis, Debye):
    X=              0.1101    Y=             -3.7045    Z=             -0.0000  Tot=              3.7061
 Quadrupole moment (field-independent basis, Debye-Ang):
   XX=           -152.5389   YY=           -160.5128   ZZ=           -203.3370
   XY=              2.7088   XZ=              0.0000   YZ=              0.0000

 Normal termination of Gaussian 16 at Mon Jan 23 21:53:47 2023.
