 Gaussian 16, Revision C.02,
 Gaussian 16:  ES64L-G16RevC.02  7-Dec-2021

 -----------------------------
 #n B3LYP/6-31G(d) Opt scf=xqc
 -----------------------------

 --
 Zn
 --
 Symbolic Z-matrix:
 Charge =  0 Multiplicity = 1

 SCF Done:  E(RB3LYP) =  -1779.09016871     A.U. after    6 cycles

 The electronic state is 1-A1G.
 Alpha  occ. eigenvalues -- -347.16671 -42.13264 -37.11654 -37.11654 -37.11654
 Alpha  occ. eigenvalues --   -4.71818  -3.10980  -3.10980  -3.10980  -0.37063
 Alpha  occ. eigenvalues --   -0.37063  -0.37063  -0.37063  -0.37063  -0.22407
 Alpha virt. eigenvalues --   -0.02011  -0.02011  -0.02011   0.13000   0.21736
 Alpha virt. eigenvalues --    0.21736   0.21736   1.29332   2.11693   2.11693
 Alpha virt. eigenvalues --    2.11693   2.11693   2.11693   2.38321   2.38321

 Mulliken charges:
               1
     1  Zn  -0.000000
 Sum of Mulliken charges =  -0.00000

 Dipole moment (field-independent basis, Debye):
    X=              0.0000    Y=              0.0000    Z=              0.0000  Tot=              0.0000
 Quadrupole moment (field-independent basis, Debye-Ang):
   XX=            -14.9212   YY=            -14.9212   ZZ=            -14.9212
   XY=              0.0000   XZ=              0.0000   YZ=              0.0000

 Optimization completed.
    -- Stationary point found.

                         Standard orientation:
 ---------------------------------------------------------------------
 Center     Atomic      Atomic             Coordinates (Angstroms)
 Number     Number       Type             X           Y           Z
 ---------------------------------------------------------------------
      1         30           0        0.000000    0.000000    0.000000
 ---------------------------------------------------------------------

 Normal termination of Gaussian 16 at Fri Jan 27 00:49:05 2023.
