 Gaussian 16, Revision C.01,
 Gaussian 16:  ES64L-G16RevC.01  3-Jul-2019

 -------------------------------------
 #n B3LYP/6-31G(d) Opt scf=xqc pop=nbo
 -------------------------------------

 ---------
 14mr_N2_1
 ---------
 Symbolic Z-matrix:
 Charge =  0 Multiplicity = 1

 SCF Done:  E(RB3LYP) =  -2623.54138601     A.U. after   19 cycles
 SCF Done:  E(RB3LYP) =  -2623.58871531     A.U. after   15 cycles
 SCF Done:  E(RB3LYP) =  -2623.60649069     A.U. after   15 cycles
 SCF Done:  E(RB3LYP) =  -2623.60787645     A.U. after   13 cycles
 SCF Done:  E(RB3LYP) =  -2623.60819576     A.U. after   14 cycles
 SCF Done:  E(RB3LYP) =  -2623.60826609     A.U. after   13 cycles
 SCF Done:  E(RB3LYP) =  -2623.60828560     A.U. after   11 cycles
 SCF Done:  E(RB3LYP) =  -2623.60829112     A.U. after   10 cycles
 SCF Done:  E(RB3LYP) =  -2623.60829193     A.U. after    9 cycles
 SCF Done:  E(RB3LYP) =  -2623.60829222     A.U. after    8 cycles
 Optimization completed.
    -- Stationary point found.

                         Standard orientation:
 ---------------------------------------------------------------------
 Center     Atomic      Atomic             Coordinates (Angstroms)
 Number     Number       Type             X           Y           Z
 ---------------------------------------------------------------------
      1         26           0        0.000007    0.000000   -0.268473
      2          7           0        1.352016   -1.291143    0.011505
      3          7           0        1.352015    1.291144    0.011507
      4          7           0       -1.352024    1.291135    0.011504
      5          7           0       -1.352023   -1.291135    0.011503
      6          6           0       -1.189920   -2.640355    0.092345
      7          6           0       -1.189923    2.640354    0.092346
      8          7           0       -0.000004    3.272766    0.079143
      9          6           0        1.189917    2.640362    0.092349
     10          6           0       -2.587067    0.711019    0.133155
     11          1           0        2.261282   -4.508488    0.270035
     12          1           0       -2.261258   -4.508486    0.270048
     13          6           0        4.989201   -0.690173    0.443950
     14          6           0        2.390076   -3.432534    0.231448
     15          6           0        3.630055   -2.856656    0.327243
     16          6           0        3.777972   -1.432127    0.299936
     17          6           0        2.587059   -0.711018    0.133156
     18          7           0       -0.000001   -3.272766    0.079139
     19          6           0        1.189921   -2.640361    0.092343
     20          6           0       -2.390072   -3.432534    0.231457
     21          6           0       -2.587066   -0.711021    0.133154
     22          6           0        4.989200    0.690175    0.443952
     23          6           0        2.587058    0.711020    0.133158
     24          6           0        3.777971    1.432129    0.299941
     25          6           0        3.630052    2.856658    0.327252
     26          6           0        2.390072    3.432535    0.231458
     27          6           0       -2.390075    3.432533    0.231456
     28          1           0        2.261276    4.508489    0.270048
     29          1           0       -2.261264    4.508485    0.270046
     30          1           0       -4.512351   -3.482333    0.439704
     31          6           0       -3.630055   -2.856665    0.327253
     32          6           0       -3.777977   -1.432136    0.299941
     33          6           0       -4.989200   -0.690177    0.443956
     34          1           0       -5.923999   -1.230846    0.567234
     35          6           0       -4.989201    0.690174    0.443955
     36          6           0       -3.777978    1.432134    0.299940
     37          6           0       -3.630058    2.856662    0.327251
     38          1           0       -4.512355    3.482329    0.439701
     39          1           0       -5.924001    1.230842    0.567233
     40          1           0        5.923998   -1.230845    0.567223
     41          1           0        4.512353   -3.482323    0.439688
     42          1           0        5.923997    1.230848    0.567227
     43          1           0        4.512348    3.482326    0.439700
     44          7           0        0.000012    0.000001   -2.027884
     45          7           0        0.000010    0.000001   -3.148126
 ---------------------------------------------------------------------

 The electronic state is 1-A.
 Alpha  occ. eigenvalues -- -256.07796 -30.05007 -25.91844 -25.91075 -25.90974
 Alpha  occ. eigenvalues --  -14.44953 -14.41950 -14.35816 -14.35816 -14.35816
 Alpha  occ. eigenvalues --  -14.35816 -14.30723 -14.30723 -10.26431 -10.26431
 Alpha  occ. eigenvalues --  -10.26431 -10.26431 -10.23121 -10.23120 -10.23075
 Alpha  occ. eigenvalues --  -10.23075 -10.21236 -10.21236 -10.21236 -10.21236
 Alpha  occ. eigenvalues --  -10.21040 -10.21040 -10.21040 -10.21040 -10.20352
 Alpha  occ. eigenvalues --  -10.20352 -10.20290 -10.20290 -10.20106 -10.20106
 Alpha  occ. eigenvalues --  -10.20106 -10.20106  -3.43576  -2.21885  -2.20200
 Alpha  occ. eigenvalues --   -2.19840  -1.10299  -0.99111  -0.97293  -0.96956
 Alpha  occ. eigenvalues --   -0.93933  -0.90533  -0.87155  -0.85287  -0.84698
 Alpha  occ. eigenvalues --   -0.81093  -0.81090  -0.80980  -0.78961  -0.76047
 Alpha  occ. eigenvalues --   -0.74990  -0.73442  -0.72965  -0.67258  -0.66405
 Alpha  occ. eigenvalues --   -0.65704  -0.64384  -0.62959  -0.62257  -0.60865
 Alpha  occ. eigenvalues --   -0.60667  -0.60494  -0.56134  -0.55736  -0.55478
 Alpha  occ. eigenvalues --   -0.54257  -0.52287  -0.51993  -0.50494  -0.48965
 Alpha  occ. eigenvalues --   -0.48527  -0.46911  -0.46835  -0.46564  -0.46254
 Alpha  occ. eigenvalues --   -0.45449  -0.44746  -0.44576  -0.44568  -0.43889
 Alpha  occ. eigenvalues --   -0.43594  -0.43364  -0.43288  -0.42529  -0.42293
 Alpha  occ. eigenvalues --   -0.42065  -0.41516  -0.41285  -0.39542  -0.39112
 Alpha  occ. eigenvalues --   -0.37980  -0.37896  -0.37579  -0.37036  -0.34687
 Alpha  occ. eigenvalues --   -0.34479  -0.33203  -0.32827  -0.32698  -0.32464
 Alpha  occ. eigenvalues --   -0.30839  -0.30403  -0.30005  -0.29592  -0.27001
 Alpha  occ. eigenvalues --   -0.26084  -0.26050  -0.24996  -0.24247  -0.22583
 Alpha  occ. eigenvalues --   -0.22016  -0.21471  -0.19548  -0.19396
 Alpha virt. eigenvalues --   -0.07194  -0.06922  -0.05639  -0.03683  -0.01619
 Alpha virt. eigenvalues --   -0.01475  -0.01310  -0.01263   0.01611   0.01635
 Alpha virt. eigenvalues --    0.03183   0.04126   0.05359   0.05639   0.08237

 Mulliken charges:
               1
     1  Fe   1.158823
     2  N   -0.801704
     3  N   -0.801704
     4  N   -0.801705
     5  N   -0.801705
     6  C    0.521151
     7  C    0.521151
     8  N   -0.599387
     9  C    0.521151
    10  C    0.268146
    11  H    0.151951
    12  H    0.151952
    13  C   -0.207609
    14  C   -0.174638
    15  C   -0.164136
    16  C    0.178266
    17  C    0.268146
    18  N   -0.599387
    19  C    0.521151
    20  C   -0.174638
    21  C    0.268147
    22  C   -0.207609
    23  C    0.268147
    24  C    0.178266
    25  C   -0.164137
    26  C   -0.174638
    27  C   -0.174638
    28  H    0.151951
    29  H    0.151952
    30  H    0.143957
    31  C   -0.164135
    32  C    0.178268
    33  C   -0.207611
    34  H    0.135099
    35  C   -0.207611
    36  C    0.178268
    37  C   -0.164135
    38  H    0.143957
    39  H    0.135099
    40  H    0.135099
    41  H    0.143957
    42  H    0.135099
    43  H    0.143957
    44  N    0.021235
    45  N   -0.183223
 Sum of Mulliken charges =  -0.00000

 Dipole moment (field-independent basis, Debye):
    X=              0.0001    Y=             -0.0000    Z=              1.6919  Tot=              1.6919
 Quadrupole moment (field-independent basis, Debye-Ang):
   XX=           -152.2152   YY=           -183.8030   ZZ=           -200.2497
   XY=             -0.0000   XZ=             -0.0000   YZ=              0.0000

 Summary of Natural Population Analysis:

                                       Natural Population
                Natural  -----------------------------------------------
    Atom  No    Charge         Core      Valence    Rydberg      Total
 -----------------------------------------------------------------------
     Fe    1    0.80150     17.98594     7.19996    0.01260    25.19850
      N    2   -0.53182      1.99910     5.51557    0.01716     7.53182
      N    3   -0.53182      1.99910     5.51557    0.01716     7.53182
      N    4   -0.53182      1.99910     5.51557    0.01716     7.53182
      N    5   -0.53182      1.99910     5.51557    0.01716     7.53182
      C    6    0.42217      1.99912     3.55026    0.02845     5.57783
      C    7    0.42217      1.99912     3.55026    0.02845     5.57783
      N    8   -0.56833      1.99936     5.55346    0.01551     7.56833
      C    9    0.42217      1.99912     3.55026    0.02845     5.57783
      C   10    0.18831      1.99895     3.79378    0.01896     5.81169
      H   11    0.25673      0.00000     0.74216    0.00110     0.74327
      H   12    0.25674      0.00000     0.74216    0.00110     0.74326
      C   13   -0.21497      1.99908     4.20291    0.01298     6.21497
      C   14   -0.23876      1.99905     4.22601    0.01370     6.23876
      C   15   -0.18389      1.99907     4.17162    0.01321     6.18389
      C   16   -0.09157      1.99897     4.07848    0.01412     6.09157
      C   17    0.18831      1.99895     3.79378    0.01896     5.81169
      N   18   -0.56833      1.99936     5.55346    0.01551     7.56833
      C   19    0.42217      1.99912     3.55026    0.02845     5.57783
      C   20   -0.23876      1.99905     4.22601    0.01370     6.23876
      C   21    0.18831      1.99895     3.79378    0.01896     5.81169
      C   22   -0.21497      1.99908     4.20291    0.01298     6.21497
      C   23    0.18831      1.99895     3.79378    0.01896     5.81169
      C   24   -0.09157      1.99897     4.07848    0.01412     6.09157
      C   25   -0.18389      1.99907     4.17162    0.01321     6.18389
      C   26   -0.23876      1.99905     4.22601    0.01370     6.23876
      C   27   -0.23876      1.99905     4.22601    0.01370     6.23876
      H   28    0.25673      0.00000     0.74216    0.00110     0.74327
      H   29    0.25674      0.00000     0.74216    0.00110     0.74326
      H   30    0.24343      0.00000     0.75562    0.00095     0.75657
      C   31   -0.18389      1.99907     4.17162    0.01321     6.18389
      C   32   -0.09157      1.99897     4.07848    0.01412     6.09157
      C   33   -0.21497      1.99908     4.20291    0.01298     6.21497
      H   34    0.24069      0.00000     0.75838    0.00093     0.75931
      C   35   -0.21497      1.99908     4.20291    0.01298     6.21497
      C   36   -0.09157      1.99897     4.07848    0.01412     6.09157
      C   37   -0.18389      1.99907     4.17162    0.01321     6.18389
      H   38    0.24343      0.00000     0.75562    0.00095     0.75657
      H   39    0.24069      0.00000     0.75838    0.00093     0.75931
      H   40    0.24069      0.00000     0.75838    0.00093     0.75931
      H   41    0.24343      0.00000     0.75562    0.00095     0.75657
      H   42    0.24069      0.00000     0.75838    0.00093     0.75931
      H   43    0.24343      0.00000     0.75562    0.00095     0.75657
      N   44   -0.04774      1.99919     4.98366    0.06490     7.04774
      N   45    0.02164      1.99968     4.94144    0.03725     6.97836
 =======================================================================
   * Total *    0.00000     81.95687   155.41114    0.63199   238.00000

 Normal termination of Gaussian 16 at Thu Feb  2 11:04:56 2023.
