 Gaussian 16, Revision C.02,
 Gaussian 16:  ES64L-G16RevC.02  7-Dec-2021

 ----------------------------------------------------------------------
 #n M06L/6-31G(d) Opt Geom=(AllCheck,Step=20) SCF=XQC Guess=Read Output
 =wfx Pop=Hirshfeld
 ----------------------------------------------------------------------

 Structure from the checkpoint file:  "2step.chk"
 --------
 2a_fn4_e
 --------
 Charge =  0 Multiplicity = 1

 SCF Done:  E(RM06L) =  -2865.25344908     A.U. after   21 cycles
 SCF Done:  E(RM06L) =  -2865.27332117     A.U. after   14 cycles
 SCF Done:  E(RM06L) =  -2865.27657271     A.U. after   14 cycles
 SCF Done:  E(RM06L) =  -2865.27670398     A.U. after   11 cycles
 SCF Done:  E(RM06L) =  -2865.27671281     A.U. after   10 cycles
 Optimization completed.
    -- Stationary point found.

                         Standard orientation:
 ---------------------------------------------------------------------
 Center     Atomic      Atomic             Coordinates (Angstroms)
 Number     Number       Type             X           Y           Z
 ---------------------------------------------------------------------
      1          7           0        0.000000    1.282709    4.836923
      2          7           0        0.000000    1.292513    2.161582
      3          6           0        0.000000    0.699356    0.902170
      4          6           0        0.000000    1.404962   -0.301964
      5          6           0        0.000000    0.704364   -1.538789
      6          6           0        0.000000    1.435820   -2.767117
      7          6           0        0.000000    0.728961   -4.004089
      8          6           0        0.000000    1.470801   -5.193114
      9          6           0        0.000000    2.616873    4.704034
     10          6           0        0.000000    3.278799    3.492844
     11          6           0        0.000000    2.658560    2.227792
     12          6           0        0.000000    3.465949    1.011090
     13          6           0        0.000000    2.828342   -0.259999
     14          6           0        0.000000    3.572021   -1.468888
     15          6           0        0.000000    2.862210   -2.746222
     16          6           0        0.000000    3.544567   -3.966353
     17          6           0        0.000000    2.856303   -5.172431
     18          6           0        0.000000    4.869193    1.035910
     19          6           0        0.000000    5.600522   -0.142115
     20          6           0        0.000000    4.968084   -1.379287
     21          6           0       -0.000000   -4.869193    1.035910
     22          6           0       -0.000000   -5.600522   -0.142115
     23          6           0       -0.000000   -4.968084   -1.379287
     24          6           0       -0.000000   -2.616873    4.704034
     25          6           0       -0.000000   -3.278799    3.492844
     26          6           0       -0.000000   -2.658560    2.227792
     27          6           0       -0.000000   -3.465949    1.011090
     28          6           0       -0.000000   -2.828342   -0.259999
     29          6           0       -0.000000   -3.572021   -1.468888
     30          6           0       -0.000000   -2.862210   -2.746222
     31          6           0       -0.000000   -3.544567   -3.966353
     32          6           0       -0.000000   -2.856303   -5.172431
     33          7           0       -0.000000   -1.282709    4.836923
     34          7           0       -0.000000   -1.292513    2.161582
     35          6           0       -0.000000   -0.699356    0.902170
     36          6           0       -0.000000   -1.404962   -0.301964
     37          6           0       -0.000000   -0.704364   -1.538789
     38          6           0       -0.000000   -1.435820   -2.767117
     39          6           0       -0.000000   -0.728961   -4.004089
     40          6           0       -0.000000   -1.470801   -5.193114
     41          1           0        0.000000    1.016265    5.823131
     42          1           0        0.000000    0.965015   -6.154781
     43          1           0        0.000000    3.220971    5.614933
     44          1           0        0.000000    4.360714    3.541256
     45          1           0        0.000000    4.631233   -3.985672
     46          1           0        0.000000    3.410082   -6.109426
     47          1           0        0.000000    5.408582    1.978040
     48          1           0        0.000000    6.688002   -0.095973
     49          1           0        0.000000    5.579125   -2.278005
     50          1           0       -0.000000   -5.408582    1.978040
     51          1           0       -0.000000   -6.688002   -0.095973
     52          1           0       -0.000000   -5.579125   -2.278005
     53          1           0       -0.000000   -3.220971    5.614933
     54          1           0       -0.000000   -4.360714    3.541256
     55          1           0       -0.000000   -4.631233   -3.985672
     56          1           0       -0.000000   -3.410082   -6.109426
     57          1           0       -0.000000   -1.016265    5.823131
     58          1           0       -0.000000   -0.965015   -6.154781
     59         26           0        0.000000   -0.000000    3.544318
 ---------------------------------------------------------------------

 The electronic state is 1-A1.
 Alpha  occ. eigenvalues -- -255.52588 -29.93980 -25.74018 -25.72528 -25.71701
 Alpha  occ. eigenvalues --  -14.20508 -14.20508 -14.19495 -14.19495 -10.10492
 Alpha  occ. eigenvalues --  -10.10492 -10.09421 -10.09421 -10.09260 -10.09218
 Alpha  occ. eigenvalues --  -10.08007 -10.08007 -10.07888 -10.07888 -10.07822
 Alpha  occ. eigenvalues --  -10.07822 -10.07769 -10.07745 -10.07685 -10.07685
 Alpha  occ. eigenvalues --  -10.07666 -10.07665 -10.07462 -10.07426 -10.07325
 Alpha  occ. eigenvalues --  -10.07324 -10.06919 -10.06919 -10.06849 -10.06849
 Alpha  occ. eigenvalues --  -10.06804 -10.06804 -10.06723 -10.06723 -10.06634
 Alpha  occ. eigenvalues --  -10.06634 -10.06616 -10.06616 -10.05082 -10.05082
 Alpha  occ. eigenvalues --   -3.38531  -2.15116  -2.12955  -2.11819  -0.92535
 Alpha  occ. eigenvalues --   -0.89753  -0.87076  -0.86210  -0.86012  -0.84156
 Alpha  occ. eigenvalues --   -0.82720  -0.81334  -0.80953  -0.77278  -0.77186
 Alpha  occ. eigenvalues --   -0.75414  -0.74379  -0.74268  -0.72684  -0.72083
 Alpha  occ. eigenvalues --   -0.70877  -0.69867  -0.68601  -0.67615  -0.67167
 Alpha  occ. eigenvalues --   -0.62582  -0.61458  -0.61341  -0.61055  -0.59905
 Alpha  occ. eigenvalues --   -0.58279  -0.58210  -0.56139  -0.55681  -0.53010
 Alpha  occ. eigenvalues --   -0.52513  -0.51664  -0.51554  -0.49746  -0.48829
 Alpha  occ. eigenvalues --   -0.48487  -0.47856  -0.47561  -0.46219  -0.46173
 Alpha  occ. eigenvalues --   -0.45474  -0.44356  -0.44310  -0.42652  -0.42145
 Alpha  occ. eigenvalues --   -0.41903  -0.40892  -0.40670  -0.40200  -0.39813
 Alpha  occ. eigenvalues --   -0.39616  -0.39051  -0.38696  -0.38440  -0.38093
 Alpha  occ. eigenvalues --   -0.37846  -0.37538  -0.37225  -0.36528  -0.35711
 Alpha  occ. eigenvalues --   -0.35596  -0.35246  -0.35023  -0.34389  -0.34186
 Alpha  occ. eigenvalues --   -0.33872  -0.33350  -0.32552  -0.32482  -0.32268
 Alpha  occ. eigenvalues --   -0.31863  -0.31461  -0.31308  -0.30728  -0.30261
 Alpha  occ. eigenvalues --   -0.29485  -0.28440  -0.28168  -0.28101  -0.27445
 Alpha  occ. eigenvalues --   -0.26614  -0.25884  -0.25018  -0.24991  -0.23099
 Alpha  occ. eigenvalues --   -0.23037  -0.22636  -0.19680  -0.19474  -0.17923
 Alpha  occ. eigenvalues --   -0.16635  -0.16255  -0.13356  -0.13218
 Alpha virt. eigenvalues --   -0.11300  -0.08426  -0.07582  -0.05898  -0.03923
 Alpha virt. eigenvalues --   -0.03663  -0.03269  -0.02993  -0.01095   0.00414
 Alpha virt. eigenvalues --    0.00748   0.03231   0.04320   0.04595   0.04756

 Mulliken charges:
               1
     1  N   -0.735307
     2  N   -0.881249
     3  C    0.289276
     4  C    0.018682
     5  C    0.003717
     6  C    0.004972
     7  C    0.069254
     8  C   -0.238073
     9  C    0.068487
    10  C   -0.257470
    11  C    0.389206
    12  C    0.036724
    13  C    0.039044
    14  C    0.090215
    15  C    0.071406
    16  C   -0.240848
    17  C   -0.174165
    18  C   -0.244968
    19  C   -0.168316
    20  C   -0.245236
    21  C   -0.244968
    22  C   -0.168316
    23  C   -0.245236
    24  C    0.068487
    25  C   -0.257470
    26  C    0.389206
    27  C    0.036724
    28  C    0.039044
    29  C    0.090215
    30  C    0.071406
    31  C   -0.240848
    32  C   -0.174165
    33  N   -0.735307
    34  N   -0.881249
    35  C    0.289276
    36  C    0.018682
    37  C    0.003717
    38  C    0.004972
    39  C    0.069254
    40  C   -0.238073
    41  H    0.310418
    42  H    0.165199
    43  H    0.158109
    44  H    0.156519
    45  H    0.164632
    46  H    0.174277
    47  H    0.168798
    48  H    0.174824
    49  H    0.167134
    50  H    0.168798
    51  H    0.174824
    52  H    0.167134
    53  H    0.158109
    54  H    0.156519
    55  H    0.164632
    56  H    0.174277
    57  H    0.310418
    58  H    0.165199
    59  Fe   0.929471
 Sum of Mulliken charges =  -0.00000

 Dipole moment (field-independent basis, Debye):
    X=             -0.0000    Y=              0.0000    Z=              0.8332  Tot=              0.8332
 Quadrupole moment (field-independent basis, Debye-Ang):
   XX=           -247.9967   YY=           -201.9242   ZZ=           -192.5790
   XY=              0.0000   XZ=             -0.0000   YZ=             -0.0000

 Normal termination of Gaussian 16 at Wed Dec 14 10:12:06 2022.
