                         Program Version 5.0.3 -  RELEASE  -
|  1> !DLPNO-CCSD(T) Extrapolate(2/3,def2) def2-QZVPP/C TIGHTSCF  hirshfeld
|  2> %maxcore 15000
|  3> %pal
|  4> nprocs 4
|  5> end
|  6> %mdci
|  7> maxiter 500
|  8> end
|  9> * xyz 0 1
| 10>  C     -1.2440902336     -0.5690672275     0.
| 11> C     1.2712671786     4.7526506158     0.
| 12> C     -2.7081041252     1.422730887     0.
| 13> C     -2.7080864506     2.8345745651     0.
| 14> C     -1.244021593     4.8263416313     0.
| 15> C     0.0239825594     5.4133664414     0.
| 16> C     0.0239047995     -1.1561131118     0.
| 17> C     1.2712047599     -0.4954361123     0.
| 18> C     2.6325851864     1.4426507845     0.
| 19> C     2.6326046595     2.8144936068     0.
| 20> Fe     -0.017122111     2.1286168603     0.
| 21> H     0.0814998726     6.4994427719     0.
| 22> C     -1.4339448028     0.8276652894     0.
| 23> C     -1.4339124081     3.4296107488     0.
| 24> N     1.4035055798     0.8332800605     0.
| 25> N     1.4035411143     3.4239145569     0.
| 26> H     0.0814020548     -2.2421899605     0.
| 27> H     -2.0985157088     5.5099096573     0.
| 28> H     2.1775315681     5.3626861233     0.
| 29> H     -3.646248511     3.3988664228     0.
| 30> H     -3.64628002     0.8584618765     0.
| 31> H     -2.0986001329     -1.2526150477     0.
| 32> H     2.1774575943     -1.1054860799     0.
| 33> H     3.5492389719     3.4019975685     0.
| 34> H     3.5492001978     0.8551150714     0.
| 35>
| 36>
| 37> *
| 38>
| 39>                          ****END OF INPUT****
 Total Charge           Charge          ....    0
 Multiplicity           Mult            ....    1
 Number of Electrons    NEL             ....  122
E(0)                                       ...  -1830.708607780
E(0)                                       ...  -1830.708607780
E(CORR)(strong-pairs)                      ...     -2.306557389
E(CORR)(weak-pairs)                        ...     -0.017867267
E(CORR)(corrected)                         ...     -2.324424656
E(TOT)                                     ...  -1833.033032436

CARTESIAN COORDINATES (ANGSTROEM)
---------------------------------
  C     -1.244090   -0.569067    0.000000
  C      1.271267    4.752651    0.000000
  C     -2.708104    1.422731    0.000000
  C     -2.708086    2.834575    0.000000
  C     -1.244022    4.826342    0.000000
  C      0.023983    5.413366    0.000000
  C      0.023905   -1.156113    0.000000
  C      1.271205   -0.495436    0.000000
  C      2.632585    1.442651    0.000000
  C      2.632605    2.814494    0.000000
  Fe    -0.017122    2.128617    0.000000
  H      0.081500    6.499443    0.000000
  C     -1.433945    0.827665    0.000000
  C     -1.433912    3.429611    0.000000
  N      1.403506    0.833280    0.000000
  N      1.403541    3.423915    0.000000
  H      0.081402   -2.242190    0.000000
  H     -2.098516    5.509910    0.000000
  H      2.177532    5.362686    0.000000
  H     -3.646249    3.398866    0.000000
  H     -3.646280    0.858462    0.000000
  H     -2.098600   -1.252615    0.000000
  H      2.177458   -1.105486    0.000000
  H      3.549239    3.401998    0.000000
  H      3.549200    0.855115    0.000000

 Multiplicity           Mult            ....    1
 Number of Electrons    NEL             ....  122
 Basis Dimension        Dim             ....  539

ORBITAL ENERGIES
----------------

  NO   OCC          E(Eh)            E(eV)
   0   2.0000    -261.268936     -7109.4892
   1   2.0000     -31.840951      -866.4363
   2   2.0000     -27.337768      -743.8985
   3   2.0000     -27.315145      -743.2829
   4   2.0000     -27.305232      -743.0131
   5   2.0000     -15.581261      -423.9877
   6   2.0000     -15.581251      -423.9874
   7   2.0000     -11.295021      -307.3532
   8   2.0000     -11.295018      -307.3531
   9   2.0000     -11.273402      -306.7649
  10   2.0000     -11.272015      -306.7271
  11   2.0000     -11.242030      -305.9112
  12   2.0000     -11.242029      -305.9112
  13   2.0000     -11.233366      -305.6754
  14   2.0000     -11.232274      -305.6457
  15   2.0000     -11.227180      -305.5071
  16   2.0000     -11.227179      -305.5071
  17   2.0000     -11.171083      -303.9806
  18   2.0000     -11.171068      -303.9802
  19   2.0000      -4.055699      -110.3612
  20   2.0000      -2.647930       -72.0538
  21   2.0000      -2.626661       -71.4751
  22   2.0000      -2.624904       -71.4273
  23   2.0000      -1.273014       -34.6405
  24   2.0000      -1.235977       -33.6327
  25   2.0000      -1.102559       -30.0022
  26   2.0000      -1.070473       -29.1291
  27   2.0000      -1.068028       -29.0625
  28   2.0000      -0.997302       -27.1380
  29   2.0000      -0.967826       -26.3359
  30   2.0000      -0.901651       -24.5352
  31   2.0000      -0.868578       -23.6352
  32   2.0000      -0.804891       -21.9022
  33   2.0000      -0.793295       -21.5866
  34   2.0000      -0.752251       -20.4698
  35   2.0000      -0.730262       -19.8714
  36   2.0000      -0.711393       -19.3580
  37   2.0000      -0.685902       -18.6643
  38   2.0000      -0.674725       -18.3602
  39   2.0000      -0.637606       -17.3501
  40   2.0000      -0.616895       -16.7866
  41   2.0000      -0.602514       -16.3952
  42   2.0000      -0.584988       -15.9183
  43   2.0000      -0.572501       -15.5786
  44   2.0000      -0.566003       -15.4017
  45   2.0000      -0.550983       -14.9930
  46   2.0000      -0.540305       -14.7024
  47   2.0000      -0.514923       -14.0118
  48   2.0000      -0.507665       -13.8143
  49   2.0000      -0.499795       -13.6001
  50   2.0000      -0.477334       -12.9889
  51   2.0000      -0.472173       -12.8485
  52   2.0000      -0.469562       -12.7774
  53   2.0000      -0.397845       -10.8259
  54   2.0000      -0.394340       -10.7305
  55   2.0000      -0.392933       -10.6923
  56   2.0000      -0.372794       -10.1442
  57   2.0000      -0.354475        -9.6458
  58   2.0000      -0.354016        -9.6333
  59   2.0000      -0.265509        -7.2249
  60   2.0000      -0.243840        -6.6352
  61   0.0000       0.000534         0.0145
  62   0.0000       0.051487         1.4010
  63   0.0000       0.112952         3.0736
  64   0.0000       0.150555         4.0968
  65   0.0000       0.154515         4.2046

MULLIKEN ATOMIC CHARGES
-----------------------
   0 C :   -0.356137
   1 C :   -0.015951
   2 C :   -0.188199
   3 C :   -0.188190
   4 C :   -0.356136
   5 C :   -0.073658
   6 C :   -0.073658
   7 C :   -0.015944
   8 C :   -0.040765
   9 C :   -0.040766
  10 Fe:    0.541632
  11 H :    0.120978
  12 C :    0.062216
  13 C :    0.062218
  14 N :   -0.232953
  15 N :   -0.232962
  16 H :    0.120974
  17 H :    0.102528
  18 H :    0.118391
  19 H :    0.108772
  20 H :    0.108772
  21 H :    0.102528
  22 H :    0.118390
  23 H :    0.123959
  24 H :    0.123960
Sum of atomic charges:   -0.0000000

LOEWDIN ATOMIC CHARGES
----------------------
   0 C :   -0.098426
   1 C :   -0.132089
   2 C :   -0.092188
   3 C :   -0.092187
   4 C :   -0.098425
   5 C :   -0.186236
   6 C :   -0.186232
   7 C :   -0.132099
   8 C :   -0.197786
   9 C :   -0.197781
  10 Fe:    0.212568
  11 H :    0.139143
  12 C :   -0.198126
  13 C :   -0.198125
  14 N :    0.131369
  15 N :    0.131357
  16 H :    0.139143
  17 H :    0.135234
  18 H :    0.134310
  19 H :    0.127425
  20 H :    0.127426
  21 H :    0.135235
  22 H :    0.134310
  23 H :    0.131089
  24 H :    0.131090

  Mayer bond orders larger than 0.100000
B(  0-C ,  6-C ) :   1.5139 B(  0-C ,  7-C ) :   0.1257 B(  0-C , 12-C ) :   1.2319
B(  0-C , 21-H ) :   0.9690 B(  1-C ,  4-C ) :   0.1257 B(  1-C ,  5-C ) :   1.2630
B(  1-C , 15-N ) :   1.5409 B(  1-C , 18-H ) :   0.9622 B(  2-C ,  3-C ) :   1.2597
B(  2-C , 12-C ) :   1.4913 B(  2-C , 20-H ) :   0.9610 B(  3-C , 13-C ) :   1.4913
B(  3-C , 19-H ) :   0.9610 B(  4-C ,  5-C ) :   1.5139 B(  4-C , 13-C ) :   1.2319
B(  4-C , 17-H ) :   0.9690 B(  5-C , 11-H ) :   0.9832 B(  6-C ,  7-C ) :   1.2630
B(  6-C , 16-H ) :   0.9832 B(  7-C , 14-N ) :   1.5409 B(  7-C , 22-H ) :   0.9622
B(  8-C ,  9-C ) :   1.7280 B(  8-C , 14-N ) :   1.1389 B(  8-C , 24-H ) :   0.9617
B(  9-C , 15-N ) :   1.1389 B(  9-C , 23-H ) :   0.9617 B( 10-Fe, 12-C ) :   0.6264
B( 10-Fe, 13-C ) :   0.6264 B( 10-Fe, 14-N ) :   0.5032 B( 10-Fe, 15-N ) :   0.5033

E(0)                                       ...  -1831.488720454
E(CORR)(strong-pairs)                      ...     -2.803174337
E(CORR)(weak-pairs)                        ...     -0.022532330
E(CORR)(corrected)                         ...     -2.825706666
E(TOT)                                     ...  -1834.314427120
E(CCSD(T))                                 ...  -1834.459049179
FINAL SINGLE POINT ENERGY     -1834.817723609237

DIPOLE MOMENT
-------------
                                X             Y             Z
Electronic contribution:      0.90800      -0.00004       0.00000
Nuclear contribution   :      0.11147       0.00001       0.00000
                        -----------------------------------------
Total Dipole Moment    :      1.01947      -0.00003       0.00000
                        -----------------------------------------
Magnitude (a.u.)       :      1.01947
Magnitude (Debye)      :      2.59129

Rotational constants in cm-1:     0.028386     0.021085     0.012098
Rotational constants in MHz :   851.003714   632.104529   362.699961

                             ****ORCA TERMINATED NORMALLY****
TOTAL RUN TIME: 0 days 2 hours 56 minutes 17 seconds 199 msec
