 Gaussian 16, Revision C.02,
 Gaussian 16:  ES64L-G16RevC.02  7-Dec-2021

 ----------------------------
 #n B3LYP/6-31G(d) Opt scf=qc
 ----------------------------

 ---------
 gy2_Co2_C
 ---------
 Symbolic Z-matrix:
 Charge =  0 Multiplicity = 1

 SCF Done:  E(RB3LYP) =  -3914.99796660     a.u. after   24 cycles
 SCF Done:  E(RB3LYP) =  -3915.10956426     a.u. after   12 cycles
 SCF Done:  E(RB3LYP) =  -3915.21772861     a.u. after   17 cycles
 SCF Done:  E(RB3LYP) =  -3915.24266033     a.u. after   15 cycles
 SCF Done:  E(RB3LYP) =  -3915.25739400     a.u. after   14 cycles
 SCF Done:  E(RB3LYP) =  -3915.25919152     a.u. after   14 cycles
 SCF Done:  E(RB3LYP) =  -3915.25970728     a.u. after    7 cycles
 SCF Done:  E(RB3LYP) =  -3915.26041067     a.u. after   10 cycles
 SCF Done:  E(RB3LYP) =  -3915.26104319     a.u. after   12 cycles
 SCF Done:  E(RB3LYP) =  -3915.26186404     a.u. after    7 cycles
 SCF Done:  E(RB3LYP) =  -3915.26324098     a.u. after   12 cycles
 SCF Done:  E(RB3LYP) =  -3915.26376697     a.u. after   10 cycles
 SCF Done:  E(RB3LYP) =  -3915.26398291     a.u. after    6 cycles
 SCF Done:  E(RB3LYP) =  -3915.26406209     a.u. after    5 cycles
 SCF Done:  E(RB3LYP) =  -3915.26405793     a.u. after    8 cycles
 SCF Done:  E(RB3LYP) =  -3915.26408046     a.u. after    5 cycles
 SCF Done:  E(RB3LYP) =  -3915.26412280     a.u. after    5 cycles
 SCF Done:  E(RB3LYP) =  -3915.26413746     a.u. after    4 cycles
 SCF Done:  E(RB3LYP) =  -3915.26413792     a.u. after    2 cycles
 SCF Done:  E(RB3LYP) =  -3915.26413800     a.u. after    2 cycles
 Optimization completed.
    -- Stationary point found.

                         Standard orientation:
 ---------------------------------------------------------------------
 Center     Atomic      Atomic             Coordinates (Angstroms)
 Number     Number       Type             X           Y           Z
 ---------------------------------------------------------------------
      1          6           0       -0.000000   -4.216950   -3.730993
      2          6           0       -0.000000   -3.360974   -2.613733
      3          6           0       -0.000000   -3.919341   -1.285855
      4          6           0       -0.000000   -5.317629   -1.124367
      5          6           0       -0.000000   -6.139319   -2.243731
      6          6           0       -0.000000   -5.592042   -3.540889
      7          6           0       -0.000000   -1.942437   -2.640566
      8          6           0       -0.000000   -2.931450   -0.258569
      9          6           0       -0.000000   -0.684167   -2.728501
     10          6           0       -0.000000   -2.135623    0.783728
     11          6           0        0.000000    0.684167   -2.728501
     12          6           0       -0.000000   -1.845210    2.126948
     13          6           0        0.000000    1.942437   -2.640566
     14          6           0       -0.000000   -1.423371    3.276407
     15          1           0       -0.000000   -3.792797   -4.730398
     16          1           0       -0.000000   -5.740099   -0.124232
     17          1           0       -0.000000   -7.218293   -2.117077
     18          1           0       -0.000000   -6.253213   -4.402707
     19         27           0       -0.000000   -1.186840   -0.795289
     20          1           0        0.000000    6.253213   -4.402707
     21          1           0        0.000000    3.792797   -4.730398
     22          1           0        0.000000    7.218293   -2.117077
     23          1           0        0.000000    5.740099   -0.124232
     24          6           0        0.000000    5.592042   -3.540889
     25          6           0        0.000000    6.139319   -2.243731
     26          6           0        0.000000    5.317629   -1.124367
     27          6           0        0.000000    3.919341   -1.285855
     28          6           0        0.000000    3.360974   -2.613733
     29          6           0        0.000000    4.216950   -3.730993
     30         27           0        0.000000    1.186840   -0.795289
     31          6           0        0.000000    2.931450   -0.258569
     32          6           0        0.000000    2.135623    0.783728
     33          6           0        0.000000    1.845210    2.126948
     34          6           0        0.000000    1.423371    3.276407
     35          6           0        0.000000    0.718899    4.506301
     36          6           0        0.000000    1.397528    5.737721
     37          6           0        0.000000    0.699167    6.941823
     38          6           0       -0.000000   -0.699167    6.941823
     39          6           0       -0.000000   -1.397528    5.737721
     40          6           0       -0.000000   -0.718899    4.506301
     41          1           0        0.000000    2.482917    5.731666
     42          1           0        0.000000    1.244626    7.881202
     43          1           0       -0.000000   -1.244626    7.881202
     44          1           0       -0.000000   -2.482917    5.731666
 ---------------------------------------------------------------------

 The electronic state is 1-A1.
 Alpha  occ. eigenvalues -- -277.49900-277.49899 -32.83061 -32.83060 -28.49082
 Alpha  occ. eigenvalues --  -28.49077 -28.47344 -28.47344 -28.46762 -28.46757
 Alpha  occ. eigenvalues --  -10.23270 -10.23207 -10.22907 -10.22867 -10.22369
 Alpha  occ. eigenvalues --  -10.22369 -10.22309 -10.22309 -10.22181 -10.22181
 Alpha  occ. eigenvalues --  -10.21804 -10.21804 -10.21699 -10.21698 -10.20760
 Alpha  occ. eigenvalues --  -10.20755 -10.20685 -10.20637 -10.20564 -10.20564
 Alpha  occ. eigenvalues --  -10.20390 -10.20390 -10.20195 -10.20195 -10.20192
 Alpha  occ. eigenvalues --  -10.20192 -10.20133 -10.20133 -10.19522 -10.19522
 Alpha  occ. eigenvalues --   -3.68744  -3.68661  -2.39873  -2.39376  -2.35635
 Alpha  occ. eigenvalues --   -2.35539  -2.35436  -2.35261  -0.87903  -0.87741
 Alpha  occ. eigenvalues --   -0.87737  -0.83172  -0.81190  -0.80985  -0.79590
 Alpha  occ. eigenvalues --   -0.79373  -0.78137  -0.77064  -0.76208  -0.76118
 Alpha  occ. eigenvalues --   -0.74157  -0.72801  -0.72171  -0.66356  -0.65834
 Alpha  occ. eigenvalues --   -0.64602  -0.63223  -0.63120  -0.62539  -0.60149
 Alpha  occ. eigenvalues --   -0.59048  -0.58238  -0.55008  -0.54910  -0.53818
 Alpha  occ. eigenvalues --   -0.51207  -0.50603  -0.50187  -0.47648  -0.47384
 Alpha  occ. eigenvalues --   -0.47334  -0.45625  -0.45185  -0.45116  -0.44176
 Alpha  occ. eigenvalues --   -0.44142  -0.43992  -0.40863  -0.40820  -0.40033
 Alpha  occ. eigenvalues --   -0.39835  -0.38110  -0.37883  -0.37875  -0.37557
 Alpha  occ. eigenvalues --   -0.37257  -0.37041  -0.36093  -0.35469  -0.35229
 Alpha  occ. eigenvalues --   -0.34852  -0.34760  -0.31802  -0.31106  -0.30648
 Alpha  occ. eigenvalues --   -0.30525  -0.29334  -0.27028  -0.26798  -0.26760
 Alpha  occ. eigenvalues --   -0.26404  -0.26208  -0.24519  -0.23913  -0.23708
 Alpha  occ. eigenvalues --   -0.22093  -0.22092  -0.20688  -0.20361  -0.19978
 Alpha  occ. eigenvalues --   -0.17892  -0.16886  -0.15932
 Alpha virt. eigenvalues --   -0.10491  -0.10434  -0.08144  -0.07504  -0.04648
 Alpha virt. eigenvalues --   -0.01455  -0.01347  -0.01268   0.00809   0.00914
 Alpha virt. eigenvalues --    0.01682   0.02701   0.04622   0.04959   0.05256

 Mulliken charges:
               1
     1  C   -0.123040
     2  C    0.001968
     3  C    0.062938
     4  C   -0.187497
     5  C   -0.128825
     6  C   -0.144283
     7  C   -0.419830
     8  C    0.205307
     9  C    0.285466
    10  C   -0.456070
    11  C    0.285466
    12  C    0.113679
    13  C   -0.419830
    14  C   -0.112397
    15  H    0.150186
    16  H    0.150768
    17  H    0.138078
    18  H    0.138354
    19  Co   0.273081
    20  H    0.138354
    21  H    0.150186
    22  H    0.138078
    23  H    0.150768
    24  C   -0.144283
    25  C   -0.128825
    26  C   -0.187497
    27  C    0.062938
    28  C    0.001968
    29  C   -0.123040
    30  Co   0.273081
    31  C    0.205307
    32  C   -0.456070
    33  C    0.113679
    34  C   -0.112397
    35  C    0.048952
    36  C   -0.169114
    37  C   -0.122354
    38  C   -0.122354
    39  C   -0.169114
    40  C    0.048952
    41  H    0.152590
    42  H    0.142043
    43  H    0.142043
    44  H    0.152590
 Sum of Mulliken charges =  -0.00000

 Dipole moment (field-independent basis, Debye):
    X=             -0.0000    Y=             -0.0000    Z=              0.5510  Tot=              0.5510
 Quadrupole moment (field-independent basis, Debye-Ang):
   XX=           -203.2684   YY=           -157.9581   ZZ=           -154.6364
   XY=              0.0000   XZ=             -0.0000   YZ=             -0.0000

 Normal termination of Gaussian 16 at Sat Jan 21 15:50:56 2023.
